 Gaussian 09, Revision D.01,
 Gaussian 09:  ES64L-G09RevD.01 24-Apr-2013

 ----------------------------------------------------------------------
 # p b3lyp/gen empiricaldispersion=gd2 integral=ultrafine scf(maxconven
 tionalcycles=100,xqc) nosymm opt=cartesian freq
 ----------------------------------------------------------------------

 -----
 water
 -----
 Symbolic Z-matrix:
 Charge =  0 Multiplicity = 1

 SCF Done:  E(RB3LYP) =  -76.4335094471     A.U. after    9 cycles
 SCF Done:  E(RB3LYP) =  -76.4339665605     A.U. after    8 cycles
 SCF Done:  E(RB3LYP) =  -76.4339762208     A.U. after    6 cycles
 Optimization completed.
    -- Stationary point found.
 Normal termination of Gaussian 09 at Wed Sep 22 20:29:40 2021.

 ------------------------------------------------------------------
 #N Geom=AllCheck Guess=TCheck SCRF=Check GenChk RB3LYP/ChkBas Freq
 ------------------------------------------------------------------

 Structure from the checkpoint file:  "water.chk"
 -----
 water
 -----
 Charge =  0 Multiplicity = 1

                          Input orientation:
 ---------------------------------------------------------------------
 Center     Atomic      Atomic             Coordinates (Angstroms)
 Number     Number       Type             X           Y           Z
 ---------------------------------------------------------------------
      1          8           0       -0.442834    1.092106   -0.008663
      2          1           0        0.519341    1.075700    0.015400
      3          1           0       -0.736097    0.575614    0.748873
 ---------------------------------------------------------------------

 SCF Done:  E(RB3LYP) =  -76.4339762208     A.U. after    1 cycles

 Alpha  occ. eigenvalues --  -19.10286  -1.00659  -0.53108  -0.37141  -0.29790
 Alpha virt. eigenvalues --    0.02517   0.10149   0.37815   0.41189   0.76344
 Alpha virt. eigenvalues --    0.77726   0.89200   1.16425   1.99981   2.04498
 Alpha virt. eigenvalues --    2.76672   2.77804   2.80821   3.17342   3.48395

 Mulliken charges:
               1
     1  O   -0.797433
     2  H    0.398716
     3  H    0.398716
 Sum of Mulliken charges =   0.00000

 Dipole moment (field-independent basis, Debye):
    X=              1.3051    Y=             -1.0397    Z=              1.5250  Tot=              2.2605
 Quadrupole moment (field-independent basis, Debye-Ang):
   XX=             -5.8470   YY=             -8.9258   ZZ=             -5.8887
   XY=              2.2702   XZ=             -1.2505   YZ=              0.6646

  Exact polarizability:   6.820   0.584   4.173  -0.856  -1.305   5.197
 Approx polarizability:   8.109   0.744   4.523  -1.092  -1.808   5.942

                      1                      2                      3
                      A                      A                      A
 Frequencies --   1704.8281              3762.3952              3878.3540
 Red. masses --      1.0857                 1.0423                 1.0833
 Frc consts  --      1.8592                 8.6934                 9.6009
 IR Inten    --     88.4016                 0.0880                13.3107

 - Thermochemistry -
 -------------------
 Temperature   298.150 Kelvin.  Pressure   1.00000 Atm.
 Atom     1 has atomic number  8 and mass  15.99491

 Molecular mass:    18.01056 amu.
 Principal axes and moments of inertia in atomic units:
                           1         2         3
     Eigenvalues --     2.14518   4.25438   6.39955
           X            0.81650   0.57735   0.00000
           Y            0.32524  -0.45996   0.82623
           Z           -0.47703   0.67461   0.56333
 This molecule is an asymmetric top.
 Rotational symmetry number  1.
 Rotational temperatures (Kelvin)     40.37606    20.35876    13.53435
 Rotational constants (GHZ):         841.30162   424.20822   282.01050
 Zero-point vibrational energy      55899.0 (Joules/Mol)
                                   13.36017 (Kcal/Mol)
 Vibrational temperatures:   2452.86  5413.24  5580.08
          (Kelvin)

 Zero-point correction=                           0.021291 (Hartree/Particle)
 Thermal correction to Energy=                    0.024125
 Thermal correction to Enthalpy=                  0.025070
 Thermal correction to Gibbs Free Energy=         0.002996
 Sum of electronic and zero-point Energies=            -76.412685
 Sum of electronic and thermal Energies=               -76.409851
 Sum of electronic and thermal Enthalpies=             -76.408907
 Sum of electronic and thermal Free Energies=          -76.430980

                     E (Thermal)             CV                S
                      KCal/Mol        Cal/Mol-Kelvin    Cal/Mol-Kelvin
 Total                   15.139              5.998             46.458
 Electronic               0.000              0.000              0.000
 Translational            0.889              2.981             34.608
 Rotational               0.889              2.981             11.844
 Vibrational             13.361              0.036              0.005

 Optimization completed.
    -- Stationary point found.
 Normal termination of Gaussian 09 at Wed Sep 22 20:29:45 2021.
